# LAMMPS data file written by OVITO Basic 3.10.3

1536 atoms
4 atom types

0.0 52.0 xlo xhi
0.0 23.4464874124 ylo yhi
0.0 12.3617947322 zlo zhi
9.6639447442 -3.6477654233 6.1480271971 xy xz yz

Masses

1 12.0107  # C
2 1.00794  # H
3 15.9994  # O
4 14.0067  # N

Atoms  # charge

1 1 0.0 5.6383573866 9.4581977681 6.2972218545
2 1 0.0 4.3625838216 10.2910070525 6.2613726498
3 1 0.0 3.071836657 9.4822643143 6.1367657589
4 1 0.0 3.0418468478 7.9618584701 6.0676633263
5 1 0.0 4.3292903815 7.1376621307 6.0831155697
6 1 0.0 5.6216645458 7.9384154914 6.1968440813
7 2 0.0 4.3709287829 11.4275438738 6.3308459362
8 2 0.0 4.3240120659 5.9996371853 6.0177216756
9 3 0.0 7.0446800567 9.9357645997 6.4220759813
10 4 0.0 7.017163647 7.4177236378 6.242211868
11 1 0.0 7.8617063396 8.6653032855 6.3708981511
12 1 0.0 12.3810341098 8.6116375324 6.3214509722
13 1 0.0 11.6178236479 7.2891582011 6.2033958325
14 1 0.0 10.0953106477 7.3067934993 6.2511123602
15 1 0.0 9.369845001 8.6482152364 6.3898116971
16 1 0.0 10.1330643619 9.9701867037 6.5365462005
17 1 0.0 11.6578113329 9.9521397567 6.4913020318
18 2 0.0 9.5031747047 6.3357441958 6.1721204918
19 2 0.0 9.5696124959 10.9530169406 6.6660978093
20 2 0.0 12.2515554657 10.9219384588 6.5795652462
21 1 0.0 3.7030609865 5.4178162433 3.6447515588
22 1 0.0 2.4139784643 6.2287103824 3.7255976964
23 1 0.0 1.1314609601 5.4224749205 3.5169306013
24 1 0.0 1.1161783911 3.9265300657 3.2462072967
25 1 0.0 2.4159511089 3.1206983049 3.1637541258
26 1 0.0 3.7028765945 3.9189776166 3.3705669517
27 2 0.0 2.4064233197 7.3482940222 3.9387150376
28 2 0.0 2.4231426235 1.9986531715 2.9607734563
29 3 0.0 5.1075209795 5.8983452179 3.803847857
30 4 0.0 5.1081739406 3.4164384228 3.3468323058
31 1 0.0 5.9422844454 4.6514292133 3.6076661746
32 3 0.0 12.7791164358 5.90144895 3.6898721096
33 3 0.0 1.6929424332 9.9796853565 6.1242803462
34 4 0.0 12.7607644722 3.3634637485 3.1248144724
35 4 0.0 1.6501350414 7.380909468 6.0093156552
36 1 0.0 0.8858948749 8.7085508171 6.0769346724
37 1 0.0 11.9821096091 4.6466649784 3.442512597
38 1 0.0 10.4729205542 4.6440003729 3.5248421499
39 1 0.0 9.7183389737 3.3322402955 3.2850233321
40 1 0.0 8.1939275775 3.3310214135 3.3386735213
41 1 0.0 7.4544814672 4.645043297 3.6179264643
42 1 0.0 8.2103706648 5.9504827713 3.8935944868
43 1 0.0 9.7361243417 5.9489942385 3.8495864975
44 2 0.0 7.6399049276 6.9114345143 4.1262434636
45 2 0.0 10.2897790595 2.3693647258 3.0654778577
46 2 0.0 7.6112338262 2.3676356971 3.1628888002
47 2 0.0 10.3207524665 6.9035657723 4.0547922901
48 2 0.0 12.1811011858 6.3064696379 6.0774291442
49 1 0.0 18.6346792298 9.4067231673 6.2715093215
50 1 0.0 17.3461075487 10.2153895026 6.3422187873
51 1 0.0 16.0653230493 9.3890080842 6.2684188728
52 1 0.0 16.048621912 7.872981811 6.1378783204
53 1 0.0 17.347561801 7.0695936057 6.0622241367
54 1 0.0 18.6336973173 7.888895253 6.134046164
55 2 0.0 17.3395494912 11.347767845 6.4599030732
56 2 0.0 17.3546823874 5.9340805444 5.9585086788
57 3 0.0 20.0372883937 9.9041564829 6.3556931436
58 4 0.0 20.0373171876 7.3883295436 6.1246512
59 1 0.0 20.8682220317 8.6444633475 6.2658228959
60 1 0.0 25.3873246443 8.6272260012 6.3061223467
61 1 0.0 24.6391198509 7.2981171154 6.1827516353
62 1 0.0 23.1158005799 7.3036858499 6.1878199711
63 1 0.0 22.3755508678 8.6394911111 6.3067404365
64 1 0.0 23.1238484062 9.9687455035 6.4591613655
65 1 0.0 24.6490416048 9.9631267449 6.4544638835
66 2 0.0 22.5350547457 6.3282454768 6.0938703312
67 2 0.0 22.5491216919 10.947582947 6.5580557234
68 2 0.0 25.2318202418 10.9381085031 6.55644869
69 1 0.0 16.7373296449 5.447697121 3.5935737286
70 1 0.0 15.4469280306 6.2443889932 3.7495795782
71 1 0.0 14.1639576669 5.4375135333 3.5537687496
72 1 0.0 14.1506068115 3.9501903883 3.2301369635
73 1 0.0 15.4525598852 3.1578449023 3.0795703037
74 1 0.0 16.7389564891 3.9582553938 3.2746394245
75 2 0.0 15.4398697224 7.3509648277 4.0185722315
76 2 0.0 15.4612503514 2.0413157879 2.8490228319
77 3 0.0 18.1415895515 5.9289493448 3.7484670166
78 4 0.0 18.1449553369 3.4612207629 3.2228435046
79 1 0.0 18.9762418764 4.6899951975 3.5164361295
80 3 0.0 25.8108902667 5.924218013 3.696053007
81 3 0.0 14.6843931927 9.8678239672 6.3434549668
82 4 0.0 25.7879074682 3.3816496778 3.1406375697
83 4 0.0 14.6601463528 7.2772371017 6.1138964386
84 1 0.0 13.8879548277 8.5933240347 6.2596419985
85 1 0.0 25.0130190208 4.670318819 3.4438723944
86 1 0.0 23.5030966956 4.6737537245 3.503579863
87 1 0.0 22.7496500056 3.3620562688 3.2563439683
88 1 0.0 21.2246021325 3.3658042826 3.2789660527
89 1 0.0 20.4864140667 4.6814227367 3.5487004138
90 1 0.0 21.2395161427 5.9874227904 3.8283242106
91 1 0.0 22.7650827631 5.9826483252 3.8069383057
92 2 0.0 20.6657274235 6.9520022359 4.0404526082
93 2 0.0 23.3213236711 2.3988209908 3.0516326476
94 2 0.0 20.6423522052 2.4065568239 3.0869873805
95 2 0.0 23.3496746876 6.941640323 4.0106606829
96 2 0.0 25.2131710166 6.3197757133 6.08249748
97 1 0.0 31.6416350724 9.4188175754 6.2571696396
98 1 0.0 30.3552160389 10.2300951102 6.3444439104
99 1 0.0 29.0721137402 9.4050952858 6.2847364418
100 1 0.0 29.0548035272 7.8895234284 6.1485094639
101 1 0.0 30.3517251384 7.0847234596 6.0549306778
102 1 0.0 31.6380607237 7.9016785418 6.1140200566
103 2 0.0 30.3510647025 11.3620045228 6.4621281962
104 2 0.0 30.3569590037 5.9496793281 5.95121522
105 3 0.0 33.0465045982 9.9114126628 6.3349253284
106 4 0.0 33.0398330576 7.3967362768 6.0953537465
107 1 0.0 33.8738797306 8.6489529151 6.2394922731
108 1 0.0 38.3909599177 8.6140600918 6.3399936643
109 1 0.0 37.6414984212 7.2868605186 6.1978330249
110 1 0.0 36.1175175827 7.2973793521 6.1812682199
111 1 0.0 35.3810194839 8.6361639194 6.2972218545
112 1 0.0 36.1309263585 9.961091414 6.4678146218
113 1 0.0 37.6551309676 9.9502067567 6.4888296729
114 2 0.0 35.5355717266 6.3254238663 6.070753775
115 2 0.0 35.5570357521 10.9430425803 6.5644838566
116 2 0.0 38.2397796204 10.9234262166 6.6032998921
117 1 0.0 29.767218428 5.4599110655 3.602103367
118 1 0.0 28.4791985502 6.2602199589 3.7573675088
119 1 0.0 27.1940081081 5.4557307734 3.5658833084
120 1 0.0 27.1764675825 3.9672769297 3.2465781505
121 1 0.0 28.4746232525 3.171152894 3.0973712881
122 1 0.0 29.7624521229 3.9689155347 3.2894735782
123 2 0.0 28.4757116949 7.36777642 4.0231460956
124 2 0.0 28.4798261117 2.0542965237 2.8704087368
125 3 0.0 31.1726795919 5.9370815375 3.7553896217
126 4 0.0 31.1649316671 3.4658921221 3.2397791634
127 1 0.0 32.0008571495 4.6936141351 3.5284270704
128 3 0.0 38.8271301478 5.9248973116 3.6267033385
129 3 0.0 27.6917005742 9.8854470343 6.3704036793
130 4 0.0 38.8083052107 3.3689927738 3.1382888287
131 4 0.0 27.6669019899 7.2946684709 6.1376310845
132 1 0.0 26.8945372181 8.6116672932 6.277195747
133 1 0.0 38.0321573358 4.6627319168 3.4149457948
134 1 0.0 36.5243786706 4.6668064538 3.4896110349
135 1 0.0 35.7676495357 3.3543177865 3.2638846631
136 1 0.0 34.2439135752 3.3619192028 3.2984976884
137 1 0.0 33.5101550052 4.6818175886 3.5556230188
138 1 0.0 34.2666347589 5.9891839473 3.8233794927
139 1 0.0 35.7925380461 5.980956272 3.7870358162
140 2 0.0 33.6988310212 6.9530829106 4.0364968339
141 2 0.0 36.3372749933 2.3858043786 3.0641180603
142 2 0.0 33.6569107577 2.3989481928 3.1254325621
143 2 0.0 36.3799917792 6.9378132571 3.9770366012
144 2 0.0 38.2143720616 6.3074884659 6.1011637901
145 1 0.0 44.6346785636 9.4595418934 6.2287375117
146 1 0.0 43.3432833726 10.253188005 6.3696619716
147 1 0.0 42.0680930016 9.4150142392 6.3207092645
148 1 0.0 42.0605878479 7.9029837751 6.1501164972
149 1 0.0 43.3632991868 7.1154952305 6.0093156552
150 1 0.0 44.6433649412 7.9461057815 6.0506040496
151 2 0.0 43.3301304129 11.3823407539 6.5176326546
152 2 0.0 43.3781309575 5.9831722528 5.8813710797
153 3 0.0 46.0343130288 9.9669002358 6.2833766444
154 4 0.0 46.0510473265 7.459066831 5.9849629196
155 1 0.0 46.8737853372 8.7183777544 6.1367657589
156 1 0.0 51.3872521055 8.7331582572 6.2282430399
157 1 0.0 50.6396595484 7.3956442304 6.2506178884
158 1 0.0 49.130698894 7.3951052952 6.0274874935
159 1 0.0 48.3808799131 8.7230800581 6.1778069174
160 1 0.0 49.1177067346 10.0536801682 6.37819161
161 1 0.0 50.6513836709 10.0759500475 6.2287375117
162 2 0.0 48.555520307 6.4178563904 5.8959579975
163 2 0.0 48.5340032104 11.025418761 6.4995844343
164 2 0.0 51.217020484 11.035553466 6.5322195724
165 1 0.0 42.7799466867 5.4563138989 3.5986420645
166 1 0.0 41.4914084102 6.2628643434 3.7070550043
167 1 0.0 40.2100353457 5.4539619509 3.519897432
168 1 0.0 40.1958804284 3.9562799931 3.2475670941
169 1 0.0 41.4942447177 3.1520864286 3.1599219694
170 1 0.0 42.7788403494 3.9524239837 3.3543730006
171 2 0.0 41.4849353633 7.3763213605 3.9441542272
172 2 0.0 41.5007463776 2.0271941231 2.9757312279
173 3 0.0 44.181689683 5.9363384336 3.7637956421
174 4 0.0 44.1802065009 3.4418290001 3.3776131747
175 1 0.0 45.0105508022 4.6795573748 3.632637
176 3 0.0 51.7533216411 5.9339033894 3.2690766169
177 3 0.0 40.6858667268 9.8800711812 6.436910135
178 4 0.0 51.7289613597 3.3402437784 3.2535007556
179 4 0.0 40.6773547591 7.2945317713 6.1519707664
180 1 0.0 39.8976594226 8.6030352685 6.3220690619
181 1 0.0 50.9387047608 4.6606109672 3.282921827
182 1 0.0 49.5258883013 4.646771593 3.5761435981
183 1 0.0 48.7717344302 3.3135775735 3.5496893573
184 1 0.0 47.2490537859 3.3244363028 3.5983948286
185 1 0.0 46.5175688254 4.6665171174 3.6997615454
186 1 0.0 47.2759697744 5.9932698982 3.822637785
187 1 0.0 48.799336019 5.983033595 3.7501976679
188 2 0.0 46.7083032362 6.9774320716 3.9388386555
189 2 0.0 49.3400847657 2.330633183 3.4632804122
190 2 0.0 46.6624411484 2.3503511871 3.5401707754
191 2 0.0 49.3892172914 6.9537121005 3.81571518
192 2 0.0 51.240215984 6.4281549066 5.9128936563
193 1 0.0 8.1006031914 15.371081204 6.4351794837
194 1 0.0 6.8308936189 16.2103535827 6.4632407578
195 1 0.0 5.5355689191 15.4174047501 6.3119323902
196 1 0.0 5.4890007905 13.905759598 6.1605004048
197 1 0.0 6.769760927 13.070077129 6.1330572205
198 1 0.0 8.0724018097 13.8569821817 6.2689133446
199 2 0.0 6.8472197097 17.3408539233 6.5960064332
200 2 0.0 6.7533770737 11.9372309982 6.0078322398
201 3 0.0 9.5101431815 15.8395676686 6.5450758389
202 4 0.0 9.4683547109 13.330351162 6.267924401
203 1 0.0 10.3205959898 14.5700002632 6.4287513505
204 1 0.0 14.8392399057 14.5577645055 6.3357906541
205 1 0.0 14.0906483832 13.2274615243 6.2038903043
206 1 0.0 12.5670649286 13.2254193449 6.2624852113
207 1 0.0 11.8283841807 14.5568702303 6.4287513505
208 1 0.0 12.5776639566 15.8837788326 6.5887129743
209 1 0.0 14.1007495175 15.88626283 6.5314778647
210 2 0.0 11.9863745229 12.250528095 6.1719968739
211 2 0.0 12.0031001772 16.8578502515 6.7374253649
212 2 0.0 14.6823024395 16.8614645391 6.6277762456
213 1 0.0 6.1141947336 11.2167589239 3.7982850494
214 1 0.0 4.8361693398 12.047060157 3.8262227055
215 1 0.0 3.54831698 11.2555222706 3.5966641773
216 1 0.0 3.5192916983 9.7543875114 3.3574634493
217 1 0.0 4.8084327225 8.9279751908 3.3354594546
218 1 0.0 6.1015157755 9.7118414158 3.5627928598
219 2 0.0 4.8416448816 13.1723912228 4.0065812906
220 2 0.0 4.8047120374 7.803028662 3.153988308
221 3 0.0 7.5194708978 11.6880811466 3.9647984244
222 4 0.0 7.5030452411 9.1946023637 3.5750310365
223 1 0.0 8.3446411507 10.4302415505 3.8183111569
224 3 0.0 15.1762552165 11.7174315298 3.761694137
225 3 0.0 4.1540752094 15.9462007829 6.0268694037
226 4 0.0 15.1616155586 9.1634233406 3.2893499603
227 4 0.0 4.076758733 13.3452452828 6.0404673779
228 1 0.0 3.3362249409 14.6871901306 6.1005457003
229 1 0.0 14.3807580614 10.4505619571 3.5720642058
230 1 0.0 12.8739356222 10.4367175242 3.6955585352
231 1 0.0 12.1230244689 9.1098474898 3.5347315857
232 1 0.0 10.5987625291 9.1032565453 3.604452108
233 1 0.0 9.8566366795 10.4249195121 3.8340106362
234 1 0.0 10.6100243302 11.7450404979 4.0425541133
235 1 0.0 12.1351934779 11.7503476136 3.9730808269
236 2 0.0 10.0373750157 12.7146429788 4.2336674599
237 2 0.0 12.6973966358 8.1377021803 3.3578343031
238 2 0.0 10.0188312164 8.1359594125 3.4698321634
239 2 0.0 12.7160907539 12.7169974915 4.1177138253
240 2 0.0 14.6646384831 12.2530128253 6.059133688
241 1 0.0 21.0932050604 15.3830583163 6.3069876723
242 1 0.0 19.8020082712 16.1900845389 6.3701564434
243 1 0.0 18.5215676773 15.3620496352 6.2755887137
244 1 0.0 18.5103429971 13.8477440346 6.1282361205
245 1 0.0 19.8108124119 13.0468138987 6.0650673494
246 1 0.0 21.094993824 13.8661121219 6.1595114612
247 2 0.0 19.7929429412 17.320985072 6.4999552881
248 2 0.0 19.8198650136 11.9124857595 5.9543056686
249 3 0.0 22.4965746115 15.8789397448 6.4102086584
250 4 0.0 22.4983481278 13.364602071 6.1675466278
251 1 0.0 23.3286688981 14.6187276555 6.3207092645
252 1 0.0 27.8498299417 14.6081431426 6.3394991925
253 1 0.0 27.1023708217 13.2774731961 6.2195897836
254 1 0.0 25.5788518545 13.2788078239 6.2392450372
255 1 0.0 24.8367587065 14.6138283556 6.3622448948
256 1 0.0 25.5836470601 15.9428398848 6.5193633058
257 1 0.0 27.1091446544 15.9415239702 6.5030457368
258 2 0.0 24.9994763935 12.3018751275 6.1517235305
259 2 0.0 25.0064953415 16.9209372822 6.6318556379
260 2 0.0 27.6897101744 16.9163327438 6.6051541613
261 1 0.0 19.1354566255 11.2557812402 3.7141012273
262 1 0.0 17.8457559513 12.0626787953 3.8147262364
263 1 0.0 16.5621979272 11.2509719977 3.6431445255
264 1 0.0 16.5502409994 9.7520852633 3.3820634208
265 1 0.0 17.8503801776 8.9496570549 3.2871248372
266 1 0.0 19.1371467226 9.7521914693 3.4676070403
267 2 0.0 17.8393361935 13.1814704485 4.0290797571
268 2 0.0 17.856869044 7.8251836551 3.1033049496
269 3 0.0 20.538126643 11.7411163572 3.8630608538
270 4 0.0 20.5424687456 9.2483004846 3.461426143
271 1 0.0 21.3724776154 10.4888852048 3.7132359016
272 3 0.0 28.2098787815 11.7493642112 3.7914860623
273 3 0.0 17.1364669778 15.8346193593 6.3517373693
274 4 0.0 28.1831980021 9.1915419623 3.3265589624
275 4 0.0 17.1250494852 13.2494767177 6.0864532543
276 1 0.0 16.3451880346 14.556589081 6.2546972806
277 1 0.0 27.4091361133 10.4860543786 3.5986420645
278 1 0.0 25.9009070356 10.4819692449 3.6955585352
279 1 0.0 25.1488957204 9.1548032653 3.5346079678
280 1 0.0 23.6240943745 9.1564055852 3.5632873315
281 1 0.0 22.8827797846 10.4822778299 3.7645373498
282 1 0.0 23.6347246033 11.8031594914 3.9755531859
283 1 0.0 25.1611480139 11.8006578798 3.9460084965
284 2 0.0 23.0617958534 12.7761689489 4.1315590354
285 2 0.0 25.7230505105 8.1804630129 3.3844121618
286 2 0.0 23.0415539028 8.1868806486 3.4185307152
287 2 0.0 25.7436697061 12.7698284488 4.0957098307
288 2 0.0 27.67803234 12.2994216236 6.1090753387
289 1 0.0 34.1106527507 15.3860677919 6.307852998
290 1 0.0 32.8256651144 16.2021327558 6.3816529125
291 1 0.0 31.5397037551 15.3824331988 6.2977163263
292 1 0.0 31.5177539316 13.8685121353 6.1492511716
293 1 0.0 32.8128621673 13.0591007797 6.0742150775
294 1 0.0 34.1035538209 13.8695175907 6.1597586971
295 2 0.0 32.8251146412 17.3334178259 6.5103391957
296 2 0.0 32.8137026241 11.9246725923 5.9641951044
297 3 0.0 35.5166231536 15.8728906243 6.4046458507
298 4 0.0 35.5053012832 13.359344937 6.1607476407
299 1 0.0 36.342735337 14.6088312482 6.3135394236
300 1 0.0 40.8645609603 14.6095373342 6.3465454155
301 1 0.0 40.1234701006 13.2735674868 6.2230510861
302 1 0.0 38.5986849054 13.2677452078 6.2424591038
303 1 0.0 37.8512656016 14.6000334959 6.3613795692
304 1 0.0 38.5924457734 15.9319586516 6.5177562725
305 1 0.0 40.1168779042 15.9372066122 6.5089793983
306 2 0.0 38.0230617555 12.2861003014 6.1539486536
307 2 0.0 38.0112888297 16.9060556322 6.624562179
308 2 0.0 40.6932088433 16.9176925668 6.6107169689
309 1 0.0 32.1646517891 11.2754877459 3.7145956991
310 1 0.0 30.8796464311 12.0856426139 3.8293131542
311 1 0.0 29.5930866738 11.2770900235 3.6673736432
312 1 0.0 29.5733284933 9.7771768377 3.4075287179
313 1 0.0 30.8698360394 8.9718487417 3.2987449243
314 1 0.0 32.1592820048 9.7725555447 3.466123625
315 2 0.0 30.8785553821 13.2037495857 4.0470043594
316 2 0.0 30.872157342 7.8466864612 3.1206114622
317 3 0.0 33.5679231949 11.7539535028 3.8681291896
318 4 0.0 33.5618850046 9.2636292933 3.4601899635
319 1 0.0 34.3977222085 10.5016360413 3.7044590274
320 3 0.0 41.2291667392 11.7620436612 3.822637785
321 3 0.0 30.1591471838 15.8650837712 6.3814056766
322 4 0.0 41.2090150567 9.2068902593 3.3489338109
323 4 0.0 30.1264382799 13.2803016128 6.1215607514
324 1 0.0 29.3574912267 14.5951024343 6.2826349367
325 1 0.0 40.4328040835 10.4952886506 3.6379525717
326 1 0.0 38.9248513569 10.4888214417 3.7281936733
327 1 0.0 38.1745835115 9.1621182763 3.5568591983
328 1 0.0 36.6494440575 9.164267803 3.576267216
329 1 0.0 35.9077126781 10.4927726096 3.7545242961
330 1 0.0 36.658824887 11.8108842346 3.9825994089
331 1 0.0 38.184005227 11.8095308936 3.9596064707
332 2 0.0 36.0844753055 12.7809934381 4.1525740864
333 2 0.0 38.7488470843 8.1898152712 3.4060453026
334 2 0.0 36.0675801271 8.1925376086 3.4501769097
335 2 0.0 38.7658208789 12.7800322576 4.1034977613
336 2 0.0 40.7042068393 12.2995361857 6.1140200566
337 1 0.0 47.1197785788 15.4560792654 6.3670659947
338 1 0.0 45.8250121986 16.2529803649 6.4612628706
339 1 0.0 44.5476589154 15.4209931519 6.3479052129
340 1 0.0 44.5407281974 13.9112210274 6.1634672355
341 1 0.0 45.8448089105 13.119246748 6.0744623134
342 1 0.0 47.1262229255 13.9432205297 6.183493343
343 2 0.0 45.810617965 17.3779833997 6.6249330329
344 2 0.0 45.8588583589 11.9882900753 5.934650415
345 3 0.0 48.521967336 15.9604151683 6.455700063
346 4 0.0 48.533148398 13.451751209 6.1593878432
347 1 0.0 49.3595264739 14.7072156206 6.3298569926
348 1 0.0 53.8828085589 14.6904230657 6.2249053553
349 1 0.0 53.126628781 13.358974914 6.1675466278
350 1 0.0 51.6040108517 13.3667126635 6.2156340093
351 1 0.0 50.8695804557 14.7050615283 6.340611754
352 1 0.0 51.6253560776 16.0353877883 6.4456870092
353 1 0.0 53.1505412699 16.0291675574 6.3770790485
354 2 0.0 51.0192782816 12.391983717 6.1448009255
355 2 0.0 51.0552848751 17.0174565746 6.5524929157
356 2 0.0 53.7368300168 17.0046636615 6.4329543607
357 1 0.0 45.1845496781 11.307115675 3.7008741069
358 1 0.0 43.8964714762 12.1097798984 3.8363593772
359 1 0.0 42.612848297 11.295294666 3.686534425
360 1 0.0 42.5971875554 9.79713538 3.4189015691
361 1 0.0 43.8965397667 8.9988060866 3.2883610167
362 1 0.0 45.1837527949 9.8061645816 3.4417708893
363 2 0.0 43.8922375646 13.2255639924 4.0625802208
364 2 0.0 43.90263369 7.874671399 3.1014506804
365 3 0.0 46.5875037817 11.7910138333 3.8460015771
366 4 0.0 46.5878326573 9.303935847 3.423846287
367 1 0.0 47.4199461866 10.5415454603 3.6762741354
368 3 0.0 54.1693078272 11.7955252425 3.2690766169
369 3 0.0 43.1613679448 15.8874813034 6.429740294
370 4 0.0 54.1449475458 9.2018656315 3.2535007556
371 4 0.0 43.1565010766 13.308527131 6.1127838771
372 1 0.0 42.3725573797 14.6114168438 6.296109293
373 1 0.0 53.3546909469 10.5222328203 3.282921827
374 1 0.0 51.9419559104 10.5047707179 3.6145887797
375 1 0.0 51.1816153998 9.1777674504 3.5213808474
376 1 0.0 49.6586610636 9.1916940777 3.5658833084
377 1 0.0 48.9296713973 10.5290035271 3.7269574938
378 1 0.0 49.6924582326 11.8442790276 3.9262296249
379 1 0.0 51.2176387394 11.832842147 3.86269
380 2 0.0 49.1273188869 12.8224944536 4.0969460101
381 2 0.0 51.7473580716 8.1947340594 3.3881207002
382 2 0.0 49.0682238334 8.226548388 3.4634040301
383 2 0.0 51.8094180964 12.7966475019 3.9832174986
384 2 0.0 53.6957508082 12.3766235552 6.0738442237
385 1 0.0 3.7898855778 12.5487114289 11.9252997602
386 1 0.0 2.5104827199 13.3726355529 12.0068876054
387 1 0.0 1.2158504695 12.5689445118 11.9004525528
388 1 0.0 1.1804241912 11.0565054568 11.7375240982
389 1 0.0 2.4720562198 10.2379721085 11.6432036044
390 1 0.0 3.7721373792 11.0358442948 11.7464245904
391 2 0.0 2.5198910993 14.5020915039 12.1578251191
392 2 0.0 2.4639830537 9.104265254 11.5162479725
393 3 0.0 5.1988219516 13.0263733345 12.0314875769
394 4 0.0 5.1735849904 10.5192360672 11.7302306393
395 1 0.0 6.0192480247 11.7624227712 11.9071279219
396 1 0.0 10.5462970634 11.7400710639 11.8607711917
397 1 0.0 9.7917676026 10.4122742598 11.7282527521
398 1 0.0 8.2674505527 10.4174424354 11.7641019569
399 1 0.0 7.5296109712 11.7506430215 11.9249289063
400 1 0.0 8.2836403755 13.0773412127 12.078338779
401 1 0.0 9.8089862096 13.07250755 12.0417478665
402 2 0.0 7.6832020727 9.442776477 11.6580377581
403 2 0.0 7.7118555924 14.0548642916 12.2014622545
404 2 0.0 10.3931078837 14.046662953 12.1434854372
405 1 0.0 1.8819800247 8.5262527069 9.2494656724
406 1 0.0 0.6022987422 9.3353761916 9.4233961243
407 1 0.0 -0.689006484 8.5220766985 9.3626997122
408 1 0.0 -0.7214261488 7.0182822658 9.1478517197
409 1 0.0 0.5691744835 6.2113804693 8.973674032
410 1 0.0 1.8666487051 7.0181378583 9.0353593877
411 2 0.0 0.6118505033 10.456207375 9.6220501657
412 2 0.0 0.5638094325 5.0803092344 8.8289174157
413 3 0.0 3.290554216 9.0090617498 9.3273449793
414 4 0.0 3.269861762 6.5101272867 8.9728087063
415 1 0.0 4.1144500677 7.7535473142 9.1572466837
416 3 0.0 10.9546738887 8.9915219341 9.3090495231
417 3 0.0 -0.1604044411 13.0594641925 12.0277790385
418 4 0.0 10.9436800463 6.419909067 8.9168097762
419 4 0.0 -0.2171174273 10.4776189396 11.740367311
420 1 0.0 -0.9732781707 11.7924480564 11.9684424238
421 1 0.0 10.1610872041 7.7206943452 9.1383331378
422 1 0.0 8.6487129524 7.7254237606 9.1780144989
423 1 0.0 7.8921142345 6.4044729954 8.9918458702
424 1 0.0 6.3650417248 6.4126166444 8.9992629471
425 1 0.0 5.6258403919 7.7424427061 9.1839481604
426 1 0.0 6.3818925064 9.0596145552 9.3992906246
427 1 0.0 7.9085640871 9.0510363452 9.3933569631
428 2 0.0 5.8096479678 10.0352103833 9.5581396869
429 2 0.0 8.4622184576 5.4299483022 8.8412792104
430 2 0.0 5.7824140977 5.4439742026 8.8647666204
431 2 0.0 8.4929876931 10.0172692337 9.5503517562
432 2 0.0 10.364302296 9.4337915503 11.5965996382
433 1 0.0 16.8097968417 12.5530837852 11.9369198472
434 1 0.0 15.5169620213 13.3599736747 11.986614262
435 1 0.0 14.2350935518 12.5338209719 11.8746164018
436 1 0.0 14.2257126327 11.0191892567 11.7233080342
437 1 0.0 15.5293178427 10.2190385098 11.6659493067
438 1 0.0 16.8133776959 11.0383417072 11.7783180208
439 2 0.0 15.5070338499 14.4916745927 12.1104794453
440 2 0.0 15.5416074411 9.0852148103 11.5491303465
441 3 0.0 18.2133228689 13.0506064678 12.0401408332
442 4 0.0 18.2193352614 10.5407656186 11.7739913926
443 1 0.0 19.0498133293 11.794567005 11.9359309036
444 1 0.0 23.57753983 11.7855664229 11.876347053
445 1 0.0 22.8246487255 10.4567951078 11.7574265877
446 1 0.0 21.3010015633 10.4595831247 11.7993330718
447 1 0.0 20.5605714484 11.7922773546 11.9534846522
448 1 0.0 21.312873592 13.1206607083 12.0961397634
449 1 0.0 22.8386973937 13.1181071563 12.0542332792
450 2 0.0 20.719524427 9.4852005139 11.700438714
451 2 0.0 20.738727382 14.1003065688 12.2122170159
452 2 0.0 23.4214758595 14.0928326786 12.1476884474
453 1 0.0 14.9098226672 8.545668608 9.2399470905
454 1 0.0 13.6183218899 9.3450579465 9.3504615354
455 1 0.0 12.3396065061 8.5226028248 9.2133692318
456 1 0.0 12.3297337916 7.0179915767 8.9860358267
457 1 0.0 13.6316778063 6.2228184068 8.8778701228
458 1 0.0 14.9144457078 7.0387929047 9.0160749879
459 2 0.0 13.6083963306 10.4647927998 9.5549256203
460 2 0.0 13.6430829768 5.0948246097 8.7166723195
461 3 0.0 16.3106551218 9.0403086084 9.3680152839
462 4 0.0 16.3205054024 6.5430791625 8.9985212394
463 1 0.0 17.1482421157 7.7919144281 9.2117621985
464 3 0.0 23.9813325143 9.04716647 9.2870455284
465 3 0.0 12.8489434743 13.0093764841 11.930368096
466 4 0.0 23.9574992789 6.4736935393 8.8929515124
467 4 0.0 12.8387430342 10.4209314796 11.6692869913
468 1 0.0 12.0561447493 11.7327407639 11.8125601922
469 1 0.0 23.1845334445 7.7783291622 9.1212738611
470 1 0.0 21.6765453801 7.7822662246 9.1900054398
471 1 0.0 20.9242442527 6.4584995982 9.0189182007
472 1 0.0 19.3998356218 6.4620692868 9.0515533388
473 1 0.0 18.6595156726 7.7901341917 9.24118327
474 1 0.0 19.4135488766 9.1097392814 9.4552895547
475 1 0.0 20.9397194967 9.1042511068 9.4258684833
476 2 0.0 18.842471688 10.079521229 9.6288491528
477 2 0.0 21.4970146235 5.4850441234 8.8639012947
478 2 0.0 18.8168971166 5.4892053359 8.9245977069
479 2 0.0 21.5256754416 10.0722608077 9.5760642893
480 2 0.0 23.3970676748 9.47883441 11.6305945738
481 1 0.0 29.8468215822 12.5611017822 11.9110836962
482 1 0.0 28.5595170394 13.3774390039 11.9637449418
483 1 0.0 27.2736042836 12.5578574332 11.8621309891
484 1 0.0 27.2528038931 11.0437519289 11.7132949805
485 1 0.0 28.549935465 10.2343883145 11.6529694222
486 1 0.0 29.8401058834 11.04540199 11.75668488
487 2 0.0 28.5574060697 14.5095786822 12.0837779686
488 2 0.0 28.5535630434 9.0993995477 11.5389936748
489 3 0.0 31.254891261 13.0474243741 12.0115850874
490 4 0.0 31.2430907077 10.5376667762 11.7540889031
491 1 0.0 32.0826853457 11.7838724955 11.9196133346
492 1 0.0 36.6135931275 11.7373041275 11.9589238418
493 1 0.0 35.8548967054 10.4120665824 11.8306084125
494 1 0.0 34.3288701339 10.4264533324 11.831720974
495 1 0.0 33.5938073206 11.7654116594 11.967824334
496 1 0.0 34.3523163612 13.0884741161 12.1186382298
497 1 0.0 35.8786709064 13.0746448878 12.1162894888
498 2 0.0 33.7432409927 9.4557515058 11.7171271369
499 2 0.0 33.7841056252 14.0715101563 12.2090029493
500 2 0.0 36.464543354 14.0472163177 12.2204994184
501 1 0.0 27.9352435193 8.5737482532 9.2299340368
502 1 0.0 26.6492295631 9.3835823473 9.3308062818
503 1 0.0 25.3642538803 8.5704298263 9.1879039347
504 1 0.0 25.3462519394 7.0642346052 8.9630428885
505 1 0.0 26.6446525351 6.2597233245 8.8667445075
506 1 0.0 27.9318766078 7.0664910706 9.0123664495
507 2 0.0 26.646965657 10.5042520023 9.5300784129
508 2 0.0 26.650311191 5.1304300433 8.7076482093
509 3 0.0 29.3384709246 9.0595358695 9.3604745891
510 4 0.0 29.3342993996 6.5610359675 9.0044549009
511 1 0.0 30.1674727247 7.8036166758 9.2235059035
512 3 0.0 36.993569724 9.0223067113 9.304475659
513 3 0.0 25.8907862342 13.0413293865 11.928142973
514 4 0.0 36.9631308671 6.4450880919 8.9485795887
515 4 0.0 25.8601529221 10.4556895621 11.6717593502
516 1 0.0 25.0877188469 11.7717879513 11.8179993819
517 1 0.0 36.1941999107 7.7532315145 9.161326076
518 1 0.0 34.6873705442 7.7633146877 9.2296868009
519 1 0.0 33.9290972462 6.4414329537 9.0741754231
520 1 0.0 32.4050166475 6.4551327395 9.0937070588
521 1 0.0 31.6751451003 7.7901525385 9.2723349927
522 1 0.0 32.4340883684 9.1074309177 9.4695056187
523 1 0.0 33.9592092923 9.0926202878 9.4500976009
524 2 0.0 31.8667075768 10.0878485437 9.6163637401
525 2 0.0 34.4964065065 5.4624209756 8.9348579965
526 2 0.0 31.8173641222 5.4898529995 8.9626720347
527 2 0.0 34.5492758425 10.0553843109 9.5939888916
528 2 0.0 36.4225992422 9.4303208529 11.7225663266
529 1 0.0 42.8699055642 12.5729520589 11.6812779322
530 1 0.0 41.5797385049 13.3659516905 11.8524887892
531 1 0.0 40.3019635327 12.5288120418 11.8532304969
532 1 0.0 40.2902928893 11.0151536962 11.6958648499
533 1 0.0 41.5927786913 10.2262358163 11.5262610262
534 1 0.0 42.8765795787 11.0580213408 11.5246539929
535 2 0.0 41.5706843906 14.4965177106 11.9830293416
536 2 0.0 41.6057759077 9.0909969292 11.414139548
537 3 0.0 44.272752178 13.0819103962 11.7037763986
538 4 0.0 44.2869104136 10.5724674567 11.4497415168
539 1 0.0 45.1162251973 11.8324279178 11.5764499128
540 1 0.0 53.2111348172 5.6591446586 0.0473456738
541 1 0.0 52.46354226 4.3216306319 0.0697205223
542 1 0.0 47.3734928214 10.4924566811 11.7584155313
543 1 0.0 46.6210265557 11.8299779649 11.7388838956
544 1 0.0 47.3452417015 13.1633110935 11.9636213238
545 1 0.0 52.4752663826 7.0019364489 0.0478401456
546 2 0.0 46.8204007502 9.5161413943 11.5533333567
547 2 0.0 46.7726968339 14.1474338395 11.9086113373
548 2 0.0 53.0450005054 7.9834713587 0.1012430989
549 1 0.0 40.9417157897 8.5571523703 9.1461210685
550 1 0.0 39.6581847481 9.3640025928 9.2801229234
551 1 0.0 38.3730568199 8.5451076199 9.1879039347
552 1 0.0 38.3520882648 7.0368759264 8.9839343216
553 1 0.0 39.6483480311 6.2326670729 8.870329428
554 1 0.0 40.9363537821 7.0449928301 8.9648971577
555 2 0.0 39.6587467754 10.4858468549 9.4643136649
556 2 0.0 39.6517348972 5.1003410373 8.7371928987
557 3 0.0 42.3454106206 9.0496588658 9.2251129368
558 4 0.0 42.3389420204 6.541527233 8.9416569836
559 1 0.0 43.1724256446 7.7914072547 9.1089120663
560 3 0.0 49.9294389294 9.007916988 9.449973983
561 3 0.0 38.9220691556 12.9979648832 12.0045388644
562 4 0.0 49.905078648 6.414257377 9.4343981216
563 4 0.0 38.9039003734 10.4104348258 11.7424688161
564 1 0.0 38.1256626887 11.7222895685 11.9155339423
565 1 0.0 49.1148220491 7.7346245657 9.4638191931
566 1 0.0 47.6826457062 7.7347352528 9.3673971942
567 1 0.0 46.926167217 6.4071943182 9.2712224312
568 1 0.0 45.4060001686 6.4285985418 9.1780144989
569 1 0.0 44.6776454373 7.7767566876 9.2001421115
570 1 0.0 45.4333509995 9.104301455 9.3217821716
571 1 0.0 46.9557513511 9.083083955 9.4002795682
572 2 0.0 44.8655610771 10.0952225831 9.3502142995
573 2 0.0 47.4945379689 5.4159707629 9.2600968159
574 2 0.0 44.817392116 5.4554245403 9.093336205
575 2 0.0 47.5439124068 10.0506651681 9.4864412775
576 2 0.0 49.4439219262 9.4986824765 12.1178965221
577 1 0.0 6.190423348 18.4611125202 11.9741288494
578 1 0.0 4.9057758114 19.2779144724 12.0291388359
579 1 0.0 3.6194638104 18.4619166957 11.9177590654
580 1 0.0 3.5964439917 16.9479757776 11.7734969209
581 1 0.0 4.8914008271 16.1371824616 11.712182419
582 1 0.0 6.1834286215 16.9454856645 11.8203481229
583 2 0.0 4.9051756358 20.4066880248 12.1683326446
584 2 0.0 4.8919177183 15.0030544186 11.5999373228
585 3 0.0 7.5948260333 18.9486135521 12.0850141481
586 4 0.0 7.5865105816 16.4371303074 11.8264054023
587 1 0.0 8.4229646433 17.6882796437 11.9877268236
588 1 0.0 12.9461915445 17.7061489559 11.9114545501
589 1 0.0 12.2032209424 16.3697120951 11.8006928693
590 1 0.0 10.6804348142 16.3619553083 11.852983261
591 1 0.0 9.9325278163 17.6897341742 12.0024373593
592 1 0.0 10.6753568273 19.0247951902 12.1373045398
593 1 0.0 12.2004227167 19.0329395719 12.0890935404
594 2 0.0 10.1032180171 15.3813139409 11.7622476877